            #Ek_l1_s1              Vk_l1_s1             #Ek_l2_s1              Vk_l2_s1
  -2.000000000000E+00    5.773502691896E-01   -2.000000000000E+00    5.773502691896E-01
   0.000000000000E+00    5.773502691896E-01    0.000000000000E+00    5.773502691896E-01
   2.000000000000E+00    5.773502691896E-01    2.000000000000E+00    5.773502691896E-01
